# Hashes of file build rules.
2d11f3f7c598f9da7608ba2790fd92f7 PVFoamReader_SM.xml
94bbb2c040f66808b937f299dae5418b PVFoamReader_SM_doc.h
5f9fefbb6e31d6442a668b7b66cacafa doc/PVFoamReader_SM.qch
8b4afcb3245c58d1c3416dcf32ac0842 vtkPVFoamReaderClientServer.cxx
0a86d14f11829fa7133409070bc8ed58 vtkSMXML_PVFoamReader_SM.h
