# Hashes of file build rules.
30f2477696972111f2940cab270d0ba7 PVblockMeshReader_SM.xml
1593d1402c5b6153b79d179132eee041 PVblockMeshReader_SM_doc.h
5bdad0c606a4ba23c38813d5578aa622 doc/PVblockMeshReader_SM.qch
3fe0654f80e0ad6c240b7b7d2377d864 vtkPVblockMeshReaderClientServer.cxx
9c1d2d859def93207c491039704e788c vtkSMXML_PVblockMeshReader_SM.h
